# vtk DataFile Version 2.0
step 0 time 0.000000e+00 normalized time 0.000000e+00, generated by modal_analysis.py
ASCII
DATASET UNSTRUCTURED_GRID

POINTS 121 float
-5.000000e-01 -5.000000e-01 0.000000e+00
-5.000000e-01 -4.000000e-01 0.000000e+00
-5.000000e-01 -3.000000e-01 0.000000e+00
-5.000000e-01 -2.000000e-01 0.000000e+00
-5.000000e-01 -1.000000e-01 0.000000e+00
-5.000000e-01 0.000000e+00 0.000000e+00
-5.000000e-01 1.000000e-01 0.000000e+00
-5.000000e-01 2.000000e-01 0.000000e+00
-5.000000e-01 3.000000e-01 0.000000e+00
-5.000000e-01 4.000000e-01 0.000000e+00
-5.000000e-01 5.000000e-01 0.000000e+00
-4.000000e-01 -5.000000e-01 0.000000e+00
-4.000000e-01 -4.000000e-01 0.000000e+00
-4.000000e-01 -3.000000e-01 0.000000e+00
-4.000000e-01 -2.000000e-01 0.000000e+00
-4.000000e-01 -1.000000e-01 0.000000e+00
-4.000000e-01 0.000000e+00 0.000000e+00
-4.000000e-01 1.000000e-01 0.000000e+00
-4.000000e-01 2.000000e-01 0.000000e+00
-4.000000e-01 3.000000e-01 0.000000e+00
-4.000000e-01 4.000000e-01 0.000000e+00
-4.000000e-01 5.000000e-01 0.000000e+00
-3.000000e-01 -5.000000e-01 0.000000e+00
-3.000000e-01 -4.000000e-01 0.000000e+00
-3.000000e-01 -3.000000e-01 0.000000e+00
-3.000000e-01 -2.000000e-01 0.000000e+00
-3.000000e-01 -1.000000e-01 0.000000e+00
-3.000000e-01 0.000000e+00 0.000000e+00
-3.000000e-01 1.000000e-01 0.000000e+00
-3.000000e-01 2.000000e-01 0.000000e+00
-3.000000e-01 3.000000e-01 0.000000e+00
-3.000000e-01 4.000000e-01 0.000000e+00
-3.000000e-01 5.000000e-01 0.000000e+00
-2.000000e-01 -5.000000e-01 0.000000e+00
-2.000000e-01 -4.000000e-01 0.000000e+00
-2.000000e-01 -3.000000e-01 0.000000e+00
-2.000000e-01 -2.000000e-01 0.000000e+00
-2.000000e-01 -1.000000e-01 0.000000e+00
-2.000000e-01 0.000000e+00 0.000000e+00
-2.000000e-01 1.000000e-01 0.000000e+00
-2.000000e-01 2.000000e-01 0.000000e+00
-2.000000e-01 3.000000e-01 0.000000e+00
-2.000000e-01 4.000000e-01 0.000000e+00
-2.000000e-01 5.000000e-01 0.000000e+00
-1.000000e-01 -5.000000e-01 0.000000e+00
-1.000000e-01 -4.000000e-01 0.000000e+00
-1.000000e-01 -3.000000e-01 0.000000e+00
-1.000000e-01 -2.000000e-01 0.000000e+00
-1.000000e-01 -1.000000e-01 0.000000e+00
-1.000000e-01 0.000000e+00 0.000000e+00
-1.000000e-01 1.000000e-01 0.000000e+00
-1.000000e-01 2.000000e-01 0.000000e+00
-1.000000e-01 3.000000e-01 0.000000e+00
-1.000000e-01 4.000000e-01 0.000000e+00
-1.000000e-01 5.000000e-01 0.000000e+00
0.000000e+00 -5.000000e-01 0.000000e+00
0.000000e+00 -4.000000e-01 0.000000e+00
0.000000e+00 -3.000000e-01 0.000000e+00
0.000000e+00 -2.000000e-01 0.000000e+00
0.000000e+00 -1.000000e-01 0.000000e+00
0.000000e+00 0.000000e+00 0.000000e+00
0.000000e+00 1.000000e-01 0.000000e+00
0.000000e+00 2.000000e-01 0.000000e+00
0.000000e+00 3.000000e-01 0.000000e+00
0.000000e+00 4.000000e-01 0.000000e+00
0.000000e+00 5.000000e-01 0.000000e+00
1.000000e-01 -5.000000e-01 0.000000e+00
1.000000e-01 -4.000000e-01 0.000000e+00
1.000000e-01 -3.000000e-01 0.000000e+00
1.000000e-01 -2.000000e-01 0.000000e+00
1.000000e-01 -1.000000e-01 0.000000e+00
1.000000e-01 0.000000e+00 0.000000e+00
1.000000e-01 1.000000e-01 0.000000e+00
1.000000e-01 2.000000e-01 0.000000e+00
1.000000e-01 3.000000e-01 0.000000e+00
1.000000e-01 4.000000e-01 0.000000e+00
1.000000e-01 5.000000e-01 0.000000e+00
2.000000e-01 -5.000000e-01 0.000000e+00
2.000000e-01 -4.000000e-01 0.000000e+00
2.000000e-01 -3.000000e-01 0.000000e+00
2.000000e-01 -2.000000e-01 0.000000e+00
2.000000e-01 -1.000000e-01 0.000000e+00
2.000000e-01 0.000000e+00 0.000000e+00
2.000000e-01 1.000000e-01 0.000000e+00
2.000000e-01 2.000000e-01 0.000000e+00
2.000000e-01 3.000000e-01 0.000000e+00
2.000000e-01 4.000000e-01 0.000000e+00
2.000000e-01 5.000000e-01 0.000000e+00
3.000000e-01 -5.000000e-01 0.000000e+00
3.000000e-01 -4.000000e-01 0.000000e+00
3.000000e-01 -3.000000e-01 0.000000e+00
3.000000e-01 -2.000000e-01 0.000000e+00
3.000000e-01 -1.000000e-01 0.000000e+00
3.000000e-01 0.000000e+00 0.000000e+00
3.000000e-01 1.000000e-01 0.000000e+00
3.000000e-01 2.000000e-01 0.000000e+00
3.000000e-01 3.000000e-01 0.000000e+00
3.000000e-01 4.000000e-01 0.000000e+00
3.000000e-01 5.000000e-01 0.000000e+00
4.000000e-01 -5.000000e-01 0.000000e+00
4.000000e-01 -4.000000e-01 0.000000e+00
4.000000e-01 -3.000000e-01 0.000000e+00
4.000000e-01 -2.000000e-01 0.000000e+00
4.000000e-01 -1.000000e-01 0.000000e+00
4.000000e-01 0.000000e+00 0.000000e+00
4.000000e-01 1.000000e-01 0.000000e+00
4.000000e-01 2.000000e-01 0.000000e+00
4.000000e-01 3.000000e-01 0.000000e+00
4.000000e-01 4.000000e-01 0.000000e+00
4.000000e-01 5.000000e-01 0.000000e+00
5.000000e-01 -5.000000e-01 0.000000e+00
5.000000e-01 -4.000000e-01 0.000000e+00
5.000000e-01 -3.000000e-01 0.000000e+00
5.000000e-01 -2.000000e-01 0.000000e+00
5.000000e-01 -1.000000e-01 0.000000e+00
5.000000e-01 0.000000e+00 0.000000e+00
5.000000e-01 1.000000e-01 0.000000e+00
5.000000e-01 2.000000e-01 0.000000e+00
5.000000e-01 3.000000e-01 0.000000e+00
5.000000e-01 4.000000e-01 0.000000e+00
5.000000e-01 5.000000e-01 0.000000e+00

CELLS 100 500
4 0 11 12 1 
4 1 12 13 2 
4 2 13 14 3 
4 3 14 15 4 
4 4 15 16 5 
4 5 16 17 6 
4 6 17 18 7 
4 7 18 19 8 
4 8 19 20 9 
4 9 20 21 10 
4 11 22 23 12 
4 12 23 24 13 
4 13 24 25 14 
4 14 25 26 15 
4 15 26 27 16 
4 16 27 28 17 
4 17 28 29 18 
4 18 29 30 19 
4 19 30 31 20 
4 20 31 32 21 
4 22 33 34 23 
4 23 34 35 24 
4 24 35 36 25 
4 25 36 37 26 
4 26 37 38 27 
4 27 38 39 28 
4 28 39 40 29 
4 29 40 41 30 
4 30 41 42 31 
4 31 42 43 32 
4 33 44 45 34 
4 34 45 46 35 
4 35 46 47 36 
4 36 47 48 37 
4 37 48 49 38 
4 38 49 50 39 
4 39 50 51 40 
4 40 51 52 41 
4 41 52 53 42 
4 42 53 54 43 
4 44 55 56 45 
4 45 56 57 46 
4 46 57 58 47 
4 47 58 59 48 
4 48 59 60 49 
4 49 60 61 50 
4 50 61 62 51 
4 51 62 63 52 
4 52 63 64 53 
4 53 64 65 54 
4 55 66 67 56 
4 56 67 68 57 
4 57 68 69 58 
4 58 69 70 59 
4 59 70 71 60 
4 60 71 72 61 
4 61 72 73 62 
4 62 73 74 63 
4 63 74 75 64 
4 64 75 76 65 
4 66 77 78 67 
4 67 78 79 68 
4 68 79 80 69 
4 69 80 81 70 
4 70 81 82 71 
4 71 82 83 72 
4 72 83 84 73 
4 73 84 85 74 
4 74 85 86 75 
4 75 86 87 76 
4 77 88 89 78 
4 78 89 90 79 
4 79 90 91 80 
4 80 91 92 81 
4 81 92 93 82 
4 82 93 94 83 
4 83 94 95 84 
4 84 95 96 85 
4 85 96 97 86 
4 86 97 98 87 
4 88 99 100 89 
4 89 100 101 90 
4 90 101 102 91 
4 91 102 103 92 
4 92 103 104 93 
4 93 104 105 94 
4 94 105 106 95 
4 95 106 107 96 
4 96 107 108 97 
4 97 108 109 98 
4 99 110 111 100 
4 100 111 112 101 
4 101 112 113 102 
4 102 113 114 103 
4 103 114 115 104 
4 104 115 116 105 
4 105 116 117 106 
4 106 117 118 107 
4 107 118 119 108 
4 108 119 120 109 

CELL_TYPES 100
9
9
9
9
9
9
9
9
9
9
9
9
9
9
9
9
9
9
9
9
9
9
9
9
9
9
9
9
9
9
9
9
9
9
9
9
9
9
9
9
9
9
9
9
9
9
9
9
9
9
9
9
9
9
9
9
9
9
9
9
9
9
9
9
9
9
9
9
9
9
9
9
9
9
9
9
9
9
9
9
9
9
9
9
9
9
9
9
9
9
9
9
9
9
9
9
9
9
9
9

POINT_DATA 121

SCALARS node_groups int 1
LOOKUP_TABLE default
0
0
0
0
0
0
0
0
0
0
0
0
0
0
0
0
0
0
0
0
0
0
0
0
0
0
0
0
0
0
0
0
0
0
0
0
0
0
0
0
0
0
0
0
0
0
0
0
0
0
0
0
0
0
0
0
0
0
0
0
0
0
0
0
0
0
0
0
0
0
0
0
0
0
0
0
0
0
0
0
0
0
0
0
0
0
0
0
0
0
0
0
0
0
0
0
0
0
0
0
0
0
0
0
0
0
0
0
0
0
0
0
0
0
0
0
0
0
0
0
0

VECTORS u003 float
3.435538e-02 -3.929323e-02 0.000000e+00
2.358842e-02 -3.750171e-02 0.000000e+00
1.233465e-02 -3.309044e-02 0.000000e+00
1.733857e-03 -2.551799e-02 0.000000e+00
-6.069815e-03 -1.519890e-02 0.000000e+00
-9.419407e-03 -3.362495e-03 0.000000e+00
-7.744875e-03 8.303181e-03 0.000000e+00
-1.774230e-03 1.814377e-02 0.000000e+00
6.695517e-03 2.503645e-02 0.000000e+00
1.544446e-02 2.876550e-02 0.000000e+00
2.334347e-02 3.014273e-02 0.000000e+00
3.279795e-02 -2.877114e-02 0.000000e+00
2.164414e-02 -2.677690e-02 0.000000e+00
9.104643e-03 -2.297217e-02 0.000000e+00
-2.728022e-03 -1.724674e-02 0.000000e+00
-1.139253e-02 -1.003658e-02 0.000000e+00
-1.498758e-02 -2.060995e-03 0.000000e+00
-1.286466e-02 5.797346e-03 0.000000e+00
-5.853058e-03 1.267240e-02 0.000000e+00
3.980367e-03 1.789490e-02 0.000000e+00
1.404871e-02 2.111635e-02 0.000000e+00
2.228859e-02 2.258089e-02 0.000000e+00
3.000157e-02 -1.928788e-02 0.000000e+00
1.924804e-02 -1.719324e-02 0.000000e+00
6.309489e-03 -1.425201e-02 0.000000e+00
-5.984157e-03 -1.025315e-02 0.000000e+00
-1.492825e-02 -5.422084e-03 0.000000e+00
-1.854049e-02 -1.882803e-04 0.000000e+00
-1.614375e-02 4.943052e-03 0.000000e+00
-8.584169e-03 9.463608e-03 0.000000e+00
1.997955e-03 1.293452e-02 0.000000e+00
1.276690e-02 1.511808e-02 0.000000e+00
2.078318e-02 1.626987e-02 0.000000e+00
2.671138e-02 -1.105699e-02 0.000000e+00
1.679430e-02 -9.172077e-03 0.000000e+00
4.052685e-03 -7.042035e-03 0.000000e+00
-8.263149e-03 -4.458823e-03 0.000000e+00
-1.720690e-02 -1.479146e-03 0.000000e+00
-2.071525e-02 1.679406e-03 0.000000e+00
-1.808185e-02 4.731837e-03 0.000000e+00
-1.014027e-02 7.377435e-03 0.000000e+00
9.257891e-04 9.352437e-03 0.000000e+00
1.204940e-02 1.053296e-02 0.000000e+00
1.978703e-02 1.106339e-02 0.000000e+00
2.360421e-02 -4.185637e-03 0.000000e+00
1.462088e-02 -2.717801e-03 0.000000e+00
2.332185e-03 -1.368337e-03 0.000000e+00
-9.762482e-03 3.973532e-05 0.000000e+00
-1.854832e-02 1.531359e-03 0.000000e+00
-2.187866e-02 3.034331e-03 0.000000e+00
-1.900716e-02 4.424594e-03 0.000000e+00
-1.074749e-02 5.556735e-03 0.000000e+00
6.883696e-04 6.296070e-03 0.000000e+00
1.210977e-02 6.564768e-03 0.000000e+00
1.987700e-02 6.376520e-03 0.000000e+00
2.120234e-02 1.493831e-03 0.000000e+00
1.299568e-02 2.376891e-03 0.000000e+00
1.187208e-03 2.940351e-03 0.000000e+00
-1.058956e-02 3.285248e-03 0.000000e+00
-1.913308e-02 3.469754e-03 0.000000e+00
-2.224260e-02 3.527471e-03 0.000000e+00
-1.913308e-02 3.469754e-03 0.000000e+00
-1.058956e-02 3.285248e-03 0.000000e+00
1.187208e-03 2.940351e-03 0.000000e+00
1.299568e-02 2.376891e-03 0.000000e+00
2.120234e-02 1.493831e-03 0.000000e+00
1.987700e-02 6.376520e-03 0.000000e+00
1.210977e-02 6.564768e-03 0.000000e+00
6.883696e-04 6.296070e-03 0.000000e+00
-1.074749e-02 5.556735e-03 0.000000e+00
-1.900716e-02 4.424594e-03 0.000000e+00
-2.187866e-02 3.034331e-03 0.000000e+00
-1.854832e-02 1.531359e-03 0.000000e+00
-9.762482e-03 3.973532e-05 0.000000e+00
2.332185e-03 -1.368337e-03 0.000000e+00
1.462088e-02 -2.717801e-03 0.000000e+00
2.360421e-02 -4.185637e-03 0.000000e+00
1.978703e-02 1.106339e-02 0.000000e+00
1.204940e-02 1.053296e-02 0.000000e+00
9.257891e-04 9.352437e-03 0.000000e+00
-1.014027e-02 7.377435e-03 0.000000e+00
-1.808185e-02 4.731837e-03 0.000000e+00
-2.071525e-02 1.679406e-03 0.000000e+00
-1.720690e-02 -1.479146e-03 0.000000e+00
-8.263149e-03 -4.458823e-03 0.000000e+00
4.052685e-03 -7.042035e-03 0.000000e+00
1.679430e-02 -9.172077e-03 0.000000e+00
2.671138e-02 -1.105699e-02 0.000000e+00
2.078318e-02 1.626987e-02 0.000000e+00
1.276690e-02 1.511808e-02 0.000000e+00
1.997955e-03 1.293452e-02 0.000000e+00
-8.584169e-03 9.463608e-03 0.000000e+00
-1.614375e-02 4.943052e-03 0.000000e+00
-1.854049e-02 -1.882803e-04 0.000000e+00
-1.492825e-02 -5.422084e-03 0.000000e+00
-5.984157e-03 -1.025315e-02 0.000000e+00
6.309489e-03 -1.425201e-02 0.000000e+00
1.924804e-02 -1.719324e-02 0.000000e+00
3.000157e-02 -1.928788e-02 0.000000e+00
2.228859e-02 2.258089e-02 0.000000e+00
1.404871e-02 2.111635e-02 0.000000e+00
3.980367e-03 1.789490e-02 0.000000e+00
-5.853058e-03 1.267240e-02 0.000000e+00
-1.286466e-02 5.797346e-03 0.000000e+00
-1.498758e-02 -2.060995e-03 0.000000e+00
-1.139253e-02 -1.003658e-02 0.000000e+00
-2.728022e-03 -1.724674e-02 0.000000e+00
9.104643e-03 -2.297217e-02 0.000000e+00
2.164414e-02 -2.677690e-02 0.000000e+00
3.279795e-02 -2.877114e-02 0.000000e+00
2.334347e-02 3.014273e-02 0.000000e+00
1.544446e-02 2.876550e-02 0.000000e+00
6.695517e-03 2.503645e-02 0.000000e+00
-1.774230e-03 1.814377e-02 0.000000e+00
-7.744875e-03 8.303181e-03 0.000000e+00
-9.419407e-03 -3.362495e-03 0.000000e+00
-6.069815e-03 -1.519890e-02 0.000000e+00
1.733857e-03 -2.551799e-02 0.000000e+00
1.233465e-02 -3.309044e-02 0.000000e+00
2.358842e-02 -3.750171e-02 0.000000e+00
3.435538e-02 -3.929323e-02 0.000000e+00

VECTORS u002 float
3.014273e-02 -2.334347e-02 0.000000e+00
2.258089e-02 -2.228859e-02 0.000000e+00
1.626987e-02 -2.078318e-02 0.000000e+00
1.106339e-02 -1.978703e-02 0.000000e+00
6.376520e-03 -1.987700e-02 0.000000e+00
1.493831e-03 -2.120234e-02 0.000000e+00
-4.185637e-03 -2.360421e-02 0.000000e+00
-1.105699e-02 -2.671138e-02 0.000000e+00
-1.928788e-02 -3.000157e-02 0.000000e+00
-2.877114e-02 -3.279795e-02 0.000000e+00
-3.929323e-02 -3.435538e-02 0.000000e+00
2.876550e-02 -1.544446e-02 0.000000e+00
2.111635e-02 -1.404871e-02 0.000000e+00
1.511808e-02 -1.276690e-02 0.000000e+00
1.053296e-02 -1.204940e-02 0.000000e+00
6.564768e-03 -1.210977e-02 0.000000e+00
2.376891e-03 -1.299568e-02 0.000000e+00
-2.717801e-03 -1.462088e-02 0.000000e+00
-9.172077e-03 -1.679430e-02 0.000000e+00
-1.719324e-02 -1.924804e-02 0.000000e+00
-2.677690e-02 -2.164414e-02 0.000000e+00
-3.750171e-02 -2.358842e-02 0.000000e+00
2.503645e-02 -6.695517e-03 0.000000e+00
1.789490e-02 -3.980367e-03 0.000000e+00
1.293452e-02 -1.997955e-03 0.000000e+00
9.352437e-03 -9.257891e-04 0.000000e+00
6.296070e-03 -6.883696e-04 0.000000e+00
2.940351e-03 -1.187208e-03 0.000000e+00
-1.368337e-03 -2.332185e-03 0.000000e+00
-7.042035e-03 -4.052685e-03 0.000000e+00
-1.425201e-02 -6.309489e-03 0.000000e+00
-2.297217e-02 -9.104643e-03 0.000000e+00
-3.309044e-02 -1.233465e-02 0.000000e+00
1.814377e-02 1.774230e-03 0.000000e+00
1.267240e-02 5.853058e-03 0.000000e+00
9.463608e-03 8.584169e-03 0.000000e+00
7.377435e-03 1.014027e-02 0.000000e+00
5.556735e-03 1.074749e-02 0.000000e+00
3.285248e-03 1.058956e-02 0.000000e+00
3.973532e-05 9.762482e-03 0.000000e+00
-4.458823e-03 8.263149e-03 0.000000e+00
-1.025315e-02 5.984157e-03 0.000000e+00
-1.724674e-02 2.728022e-03 0.000000e+00
-2.551799e-02 -1.733857e-03 0.000000e+00
8.303181e-03 7.744875e-03 0.000000e+00
5.797346e-03 1.286466e-02 0.000000e+00
4.943052e-03 1.614375e-02 0.000000e+00
4.731837e-03 1.808185e-02 0.000000e+00
4.424594e-03 1.900716e-02 0.000000e+00
3.469754e-03 1.913308e-02 0.000000e+00
1.531359e-03 1.854832e-02 0.000000e+00
-1.479146e-03 1.720690e-02 0.000000e+00
-5.422084e-03 1.492825e-02 0.000000e+00
-1.003658e-02 1.139253e-02 0.000000e+00
-1.519890e-02 6.069815e-03 0.000000e+00
-3.362495e-03 9.419407e-03 0.000000e+00
-2.060995e-03 1.498758e-02 0.000000e+00
-1.882803e-04 1.854049e-02 0.000000e+00
1.679406e-03 2.071525e-02 0.000000e+00
3.034331e-03 2.187866e-02 0.000000e+00
3.527471e-03 2.224260e-02 0.000000e+00
3.034331e-03 2.187866e-02 0.000000e+00
1.679406e-03 2.071525e-02 0.000000e+00
-1.882803e-04 1.854049e-02 0.000000e+00
-2.060995e-03 1.498758e-02 0.000000e+00
-3.362495e-03 9.419407e-03 0.000000e+00
-1.519890e-02 6.069815e-03 0.000000e+00
-1.003658e-02 1.139253e-02 0.000000e+00
-5.422084e-03 1.492825e-02 0.000000e+00
-1.479146e-03 1.720690e-02 0.000000e+00
1.531359e-03 1.854832e-02 0.000000e+00
3.469754e-03 1.913308e-02 0.000000e+00
4.424594e-03 1.900716e-02 0.000000e+00
4.731837e-03 1.808185e-02 0.000000e+00
4.943052e-03 1.614375e-02 0.000000e+00
5.797346e-03 1.286466e-02 0.000000e+00
8.303181e-03 7.744875e-03 0.000000e+00
-2.551799e-02 -1.733857e-03 0.000000e+00
-1.724674e-02 2.728022e-03 0.000000e+00
-1.025315e-02 5.984157e-03 0.000000e+00
-4.458823e-03 8.263149e-03 0.000000e+00
3.973532e-05 9.762482e-03 0.000000e+00
3.285248e-03 1.058956e-02 0.000000e+00
5.556735e-03 1.074749e-02 0.000000e+00
7.377435e-03 1.014027e-02 0.000000e+00
9.463608e-03 8.584169e-03 0.000000e+00
1.267240e-02 5.853058e-03 0.000000e+00
1.814377e-02 1.774230e-03 0.000000e+00
-3.309044e-02 -1.233465e-02 0.000000e+00
-2.297217e-02 -9.104643e-03 0.000000e+00
-1.425201e-02 -6.309489e-03 0.000000e+00
-7.042035e-03 -4.052685e-03 0.000000e+00
-1.368337e-03 -2.332185e-03 0.000000e+00
2.940351e-03 -1.187208e-03 0.000000e+00
6.296070e-03 -6.883696e-04 0.000000e+00
9.352437e-03 -9.257891e-04 0.000000e+00
1.293452e-02 -1.997955e-03 0.000000e+00
1.789490e-02 -3.980367e-03 0.000000e+00
2.503645e-02 -6.695517e-03 0.000000e+00
-3.750171e-02 -2.358842e-02 0.000000e+00
-2.677690e-02 -2.164414e-02 0.000000e+00
-1.719324e-02 -1.924804e-02 0.000000e+00
-9.172077e-03 -1.679430e-02 0.000000e+00
-2.717801e-03 -1.462088e-02 0.000000e+00
2.376891e-03 -1.299568e-02 0.000000e+00
6.564768e-03 -1.210977e-02 0.000000e+00
1.053296e-02 -1.204940e-02 0.000000e+00
1.511808e-02 -1.276690e-02 0.000000e+00
2.111635e-02 -1.404871e-02 0.000000e+00
2.876550e-02 -1.544446e-02 0.000000e+00
-3.929323e-02 -3.435538e-02 0.000000e+00
-2.877114e-02 -3.279795e-02 0.000000e+00
-1.928788e-02 -3.000157e-02 0.000000e+00
-1.105699e-02 -2.671138e-02 0.000000e+00
-4.185637e-03 -2.360421e-02 0.000000e+00
1.493831e-03 -2.120234e-02 0.000000e+00
6.376520e-03 -1.987700e-02 0.000000e+00
1.106339e-02 -1.978703e-02 0.000000e+00
1.626987e-02 -2.078318e-02 0.000000e+00
2.258089e-02 -2.228859e-02 0.000000e+00
3.014273e-02 -2.334347e-02 0.000000e+00

VECTORS u001 float
2.560702e-03 -2.560702e-03 0.000000e+00
1.002325e-02 -2.325652e-03 0.000000e+00
1.697122e-02 -1.887794e-03 0.000000e+00
2.254477e-02 -1.322858e-03 0.000000e+00
2.614429e-02 -6.804402e-04 0.000000e+00
2.738768e-02 9.309954e-15 0.000000e+00
2.614429e-02 6.804402e-04 0.000000e+00
2.254477e-02 1.322858e-03 0.000000e+00
1.697122e-02 1.887794e-03 0.000000e+00
1.002325e-02 2.325652e-03 0.000000e+00
2.560702e-03 2.560702e-03 0.000000e+00
2.325652e-03 -1.002325e-02 0.000000e+00
9.413531e-03 -9.413531e-03 0.000000e+00
1.594027e-02 -7.959855e-03 0.000000e+00
2.118780e-02 -5.757934e-03 0.000000e+00
2.457934e-02 -3.018933e-03 0.000000e+00
2.575149e-02 5.035810e-15 0.000000e+00
2.457934e-02 3.018933e-03 0.000000e+00
2.118780e-02 5.757934e-03 0.000000e+00
1.594027e-02 7.959855e-03 0.000000e+00
9.413531e-03 9.413531e-03 0.000000e+00
2.325652e-03 1.002325e-02 0.000000e+00
1.887794e-03 -1.697122e-02 0.000000e+00
7.959855e-03 -1.594027e-02 0.000000e+00
1.347631e-02 -1.347631e-02 0.000000e+00
1.789858e-02 -9.759496e-03 0.000000e+00
2.075752e-02 -5.122185e-03 0.000000e+00
2.174584e-02 -4.333102e-16 0.000000e+00
2.075752e-02 5.122185e-03 0.000000e+00
1.789858e-02 9.759496e-03 0.000000e+00
1.347631e-02 1.347631e-02 0.000000e+00
7.959855e-03 1.594027e-02 0.000000e+00
1.887794e-03 1.697122e-02 0.000000e+00
1.322858e-03 -2.254477e-02 0.000000e+00
5.757934e-03 -2.118780e-02 0.000000e+00
9.759496e-03 -1.789858e-02 0.000000e+00
1.295384e-02 -1.295384e-02 0.000000e+00
1.501654e-02 -6.796931e-03 0.000000e+00
1.572954e-02 -5.836667e-15 0.000000e+00
1.501654e-02 6.796931e-03 0.000000e+00
1.295384e-02 1.295384e-02 0.000000e+00
9.759496e-03 1.789858e-02 0.000000e+00
5.757934e-03 2.118780e-02 0.000000e+00
1.322858e-03 2.254477e-02 0.000000e+00
6.804402e-04 -2.614429e-02 0.000000e+00
3.018933e-03 -2.457934e-02 0.000000e+00
5.122185e-03 -2.075752e-02 0.000000e+00
6.796931e-03 -1.501654e-02 0.000000e+00
7.876975e-03 -7.876975e-03 0.000000e+00
8.250166e-03 -9.734884e-15 0.000000e+00
7.876975e-03 7.876975e-03 0.000000e+00
6.796931e-03 1.501654e-02 0.000000e+00
5.122185e-03 2.075752e-02 0.000000e+00
3.018933e-03 2.457934e-02 0.000000e+00
6.804402e-04 2.614429e-02 0.000000e+00
-1.740622e-14 -2.738768e-02 0.000000e+00
-1.106568e-14 -2.575149e-02 0.000000e+00
-1.781933e-15 -2.174584e-02 0.000000e+00
7.603579e-15 -1.572954e-02 0.000000e+00
1.468777e-14 -8.250166e-03 0.000000e+00
1.754164e-14 -1.079429e-14 0.000000e+00
1.556219e-14 8.250166e-03 0.000000e+00
9.187395e-15 1.572954e-02 0.000000e+00
-1.967898e-16 2.174584e-02 0.000000e+00
-9.747762e-15 2.575149e-02 0.000000e+00
-1.651106e-14 2.738768e-02 0.000000e+00
-6.804402e-04 -2.614429e-02 0.000000e+00
-3.018933e-03 -2.457934e-02 0.000000e+00
-5.122185e-03 -2.075752e-02 0.000000e+00
-6.796931e-03 -1.501654e-02 0.000000e+00
-7.876975e-03 -7.876975e-03 0.000000e+00
-8.250166e-03 -8.888528e-15 0.000000e+00
-7.876975e-03 7.876975e-03 0.000000e+00
-6.796931e-03 1.501654e-02 0.000000e+00
-5.122185e-03 2.075752e-02 0.000000e+00
-3.018933e-03 2.457934e-02 0.000000e+00
-6.804402e-04 2.614429e-02 0.000000e+00
-1.322858e-03 -2.254477e-02 0.000000e+00
-5.757934e-03 -2.118780e-02 0.000000e+00
-9.759496e-03 -1.789858e-02 0.000000e+00
-1.295384e-02 -1.295384e-02 0.000000e+00
-1.501654e-02 -6.796931e-03 0.000000e+00
-1.572954e-02 -4.287671e-15 0.000000e+00
-1.501654e-02 6.796931e-03 0.000000e+00
-1.295384e-02 1.295384e-02 0.000000e+00
-9.759496e-03 1.789858e-02 0.000000e+00
-5.757934e-03 2.118780e-02 0.000000e+00
-1.322858e-03 2.254477e-02 0.000000e+00
-1.887794e-03 -1.697122e-02 0.000000e+00
-7.959855e-03 -1.594027e-02 0.000000e+00
-1.347631e-02 -1.347631e-02 0.000000e+00
-1.789858e-02 -9.759496e-03 0.000000e+00
-2.075752e-02 -5.122185e-03 0.000000e+00
-2.174584e-02 1.677851e-15 0.000000e+00
-2.075752e-02 5.122185e-03 0.000000e+00
-1.789858e-02 9.759496e-03 0.000000e+00
-1.347631e-02 1.347631e-02 0.000000e+00
-7.959855e-03 1.594027e-02 0.000000e+00
-1.887794e-03 1.697122e-02 0.000000e+00
-2.325652e-03 -1.002325e-02 0.000000e+00
-9.413531e-03 -9.413531e-03 0.000000e+00
-1.594027e-02 -7.959855e-03 0.000000e+00
-2.118780e-02 -5.757934e-03 0.000000e+00
-2.457934e-02 -3.018933e-03 0.000000e+00
-2.575149e-02 7.432237e-15 0.000000e+00
-2.457934e-02 3.018933e-03 0.000000e+00
-2.118780e-02 5.757934e-03 0.000000e+00
-1.594027e-02 7.959855e-03 0.000000e+00
-9.413531e-03 9.413531e-03 0.000000e+00
-2.325652e-03 1.002325e-02 0.000000e+00
-2.560702e-03 -2.560702e-03 0.000000e+00
-1.002325e-02 -2.325652e-03 0.000000e+00
-1.697122e-02 -1.887794e-03 0.000000e+00
-2.254477e-02 -1.322858e-03 0.000000e+00
-2.614429e-02 -6.804402e-04 0.000000e+00
-2.738768e-02 1.107751e-14 0.000000e+00
-2.614429e-02 6.804402e-04 0.000000e+00
-2.254477e-02 1.322858e-03 0.000000e+00
-1.697122e-02 1.887794e-03 0.000000e+00
-1.002325e-02 2.325652e-03 0.000000e+00
-2.560702e-03 2.560702e-03 0.000000e+00

VECTORS u000 float
1.839207e-02 1.839207e-02 0.000000e+00
1.829815e-02 1.786748e-02 0.000000e+00
1.668021e-02 1.620520e-02 0.000000e+00
1.286761e-02 1.411649e-02 0.000000e+00
7.025349e-03 1.245602e-02 0.000000e+00
1.533496e-15 1.183016e-02 0.000000e+00
-7.025349e-03 1.245602e-02 0.000000e+00
-1.286761e-02 1.411649e-02 0.000000e+00
-1.668021e-02 1.620520e-02 0.000000e+00
-1.829815e-02 1.786748e-02 0.000000e+00
-1.839207e-02 1.839207e-02 0.000000e+00
1.786748e-02 1.829815e-02 0.000000e+00
1.845463e-02 1.845463e-02 0.000000e+00
1.727951e-02 1.794802e-02 0.000000e+00
1.351224e-02 1.720851e-02 0.000000e+00
7.426827e-03 1.659886e-02 0.000000e+00
1.106754e-15 1.636613e-02 0.000000e+00
-7.426827e-03 1.659886e-02 0.000000e+00
-1.351224e-02 1.720851e-02 0.000000e+00
-1.727951e-02 1.794802e-02 0.000000e+00
-1.845463e-02 1.845463e-02 0.000000e+00
-1.786748e-02 1.829815e-02 0.000000e+00
1.620520e-02 1.668021e-02 0.000000e+00
1.794802e-02 1.727951e-02 0.000000e+00
1.717824e-02 1.717824e-02 0.000000e+00
1.354119e-02 1.690716e-02 0.000000e+00
7.464138e-03 1.668108e-02 0.000000e+00
5.273559e-16 1.659628e-02 0.000000e+00
-7.464138e-03 1.668108e-02 0.000000e+00
-1.354119e-02 1.690716e-02 0.000000e+00
-1.717824e-02 1.717824e-02 0.000000e+00
-1.794802e-02 1.727951e-02 0.000000e+00
-1.620520e-02 1.668021e-02 0.000000e+00
1.411649e-02 1.286761e-02 0.000000e+00
1.720851e-02 1.351224e-02 0.000000e+00
1.690716e-02 1.354119e-02 0.000000e+00
1.341955e-02 1.341955e-02 0.000000e+00
7.409272e-03 1.331709e-02 0.000000e+00
-1.734723e-17 1.328023e-02 0.000000e+00
-7.409272e-03 1.331709e-02 0.000000e+00
-1.341955e-02 1.341955e-02 0.000000e+00
-1.690716e-02 1.354119e-02 0.000000e+00
-1.720851e-02 1.351224e-02 0.000000e+00
-1.411649e-02 1.286761e-02 0.000000e+00
1.245602e-02 7.025349e-03 0.000000e+00
1.659886e-02 7.426827e-03 0.000000e+00
1.668108e-02 7.464138e-03 0.000000e+00
1.331709e-02 7.409272e-03 0.000000e+00
7.361284e-03 7.361284e-03 0.000000e+00
-5.447032e-16 7.344437e-03 0.000000e+00
-7.361284e-03 7.361284e-03 0.000000e+00
-1.331709e-02 7.409272e-03 0.000000e+00
-1.668108e-02 7.464138e-03 0.000000e+00
-1.659886e-02 7.426827e-03 0.000000e+00
-1.245602e-02 7.025349e-03 0.000000e+00
1.183016e-02 -1.065120e-15 0.000000e+00
1.636613e-02 -8.396062e-16 0.000000e+00
1.659628e-02 -5.412337e-16 0.000000e+00
1.328023e-02 -1.075529e-16 0.000000e+00
7.344437e-03 3.105155e-16 0.000000e+00
-1.010585e-15 7.817640e-16 0.000000e+00
-7.344437e-03 1.264613e-15 0.000000e+00
-1.328023e-02 1.755540e-15 0.000000e+00
-1.659628e-02 2.151057e-15 0.000000e+00
-1.636613e-02 2.348816e-15 0.000000e+00
-1.183016e-02 2.303713e-15 0.000000e+00
1.245602e-02 -7.025349e-03 0.000000e+00
1.659886e-02 -7.426827e-03 0.000000e+00
1.668108e-02 -7.464138e-03 0.000000e+00
1.331709e-02 -7.409272e-03 0.000000e+00
7.361284e-03 -7.361284e-03 0.000000e+00
-1.431147e-15 -7.344437e-03 0.000000e+00
-7.361284e-03 -7.361284e-03 0.000000e+00
-1.331709e-02 -7.409272e-03 0.000000e+00
-1.668108e-02 -7.464138e-03 0.000000e+00
-1.659886e-02 -7.426827e-03 0.000000e+00
-1.245602e-02 -7.025349e-03 0.000000e+00
1.411649e-02 -1.286761e-02 0.000000e+00
1.720851e-02 -1.351224e-02 0.000000e+00
1.690716e-02 -1.354119e-02 0.000000e+00
1.341955e-02 -1.341955e-02 0.000000e+00
7.409272e-03 -1.331709e-02 0.000000e+00
-1.649722e-15 -1.328023e-02 0.000000e+00
-7.409272e-03 -1.331709e-02 0.000000e+00
-1.341955e-02 -1.341955e-02 0.000000e+00
-1.690716e-02 -1.354119e-02 0.000000e+00
-1.720851e-02 -1.351224e-02 0.000000e+00
-1.411649e-02 -1.286761e-02 0.000000e+00
1.620520e-02 -1.668021e-02 0.000000e+00
1.794802e-02 -1.727951e-02 0.000000e+00
1.717824e-02 -1.717824e-02 0.000000e+00
1.354119e-02 -1.690716e-02 0.000000e+00
7.464138e-03 -1.668108e-02 0.000000e+00
-1.817990e-15 -1.659628e-02 0.000000e+00
-7.464138e-03 -1.668108e-02 0.000000e+00
-1.354119e-02 -1.690716e-02 0.000000e+00
-1.717824e-02 -1.717824e-02 0.000000e+00
-1.794802e-02 -1.727951e-02 0.000000e+00
-1.620520e-02 -1.668021e-02 0.000000e+00
1.786748e-02 -1.829815e-02 0.000000e+00
1.845463e-02 -1.845463e-02 0.000000e+00
1.727951e-02 -1.794802e-02 0.000000e+00
1.351224e-02 -1.720851e-02 0.000000e+00
7.426827e-03 -1.659886e-02 0.000000e+00
-1.772887e-15 -1.636613e-02 0.000000e+00
-7.426827e-03 -1.659886e-02 0.000000e+00
-1.351224e-02 -1.720851e-02 0.000000e+00
-1.727951e-02 -1.794802e-02 0.000000e+00
-1.845463e-02 -1.845463e-02 0.000000e+00
-1.786748e-02 -1.829815e-02 0.000000e+00
1.839207e-02 -1.839207e-02 0.000000e+00
1.829815e-02 -1.786748e-02 0.000000e+00
1.668021e-02 -1.620520e-02 0.000000e+00
1.286761e-02 -1.411649e-02 0.000000e+00
7.025349e-03 -1.245602e-02 0.000000e+00
-1.561251e-15 -1.183016e-02 0.000000e+00
-7.025349e-03 -1.245602e-02 0.000000e+00
-1.286761e-02 -1.411649e-02 0.000000e+00
-1.668021e-02 -1.620520e-02 0.000000e+00
-1.829815e-02 -1.786748e-02 0.000000e+00
-1.839207e-02 -1.839207e-02 0.000000e+00

VECTORS u005 float
2.645367e-02 1.542160e-02 0.000000e+00
1.920901e-02 1.420312e-02 0.000000e+00
8.384907e-03 1.014315e-02 0.000000e+00
-5.600747e-03 5.523105e-03 0.000000e+00
-1.947262e-02 2.462420e-03 0.000000e+00
-2.883533e-02 1.653168e-03 0.000000e+00
-3.046527e-02 2.406754e-03 0.000000e+00
-2.371551e-02 3.426382e-03 0.000000e+00
-1.057206e-02 3.797334e-03 0.000000e+00
5.598780e-03 3.616162e-03 0.000000e+00
2.181962e-02 3.758343e-03 0.000000e+00
2.452755e-02 2.205586e-02 0.000000e+00
1.970113e-02 2.247085e-02 0.000000e+00
1.061226e-02 2.001452e-02 0.000000e+00
-2.726154e-03 1.571025e-02 0.000000e+00
-1.660429e-02 1.042578e-02 0.000000e+00
-2.622017e-02 4.784293e-03 0.000000e+00
-2.810305e-02 -7.800840e-04 0.000000e+00
-2.163938e-02 -5.867473e-03 0.000000e+00
-9.078566e-03 -9.947511e-03 0.000000e+00
5.883819e-03 -1.230543e-02 0.000000e+00
2.032114e-02 -1.219922e-02 0.000000e+00
1.880380e-02 2.342154e-02 0.000000e+00
1.862089e-02 2.508423e-02 0.000000e+00
1.229270e-02 2.311834e-02 0.000000e+00
1.082488e-03 1.870912e-02 0.000000e+00
-1.108849e-02 1.230940e-02 0.000000e+00
-1.956050e-02 4.362859e-03 0.000000e+00
-2.114132e-02 -4.424578e-03 0.000000e+00
-1.545930e-02 -1.302998e-02 0.000000e+00
-4.913085e-03 -2.018627e-02 0.000000e+00
6.716376e-03 -2.447487e-02 0.000000e+00
1.628248e-02 -2.429054e-02 0.000000e+00
1.167885e-02 1.697222e-02 0.000000e+00
1.667308e-02 1.896054e-02 0.000000e+00
1.345210e-02 1.796061e-02 0.000000e+00
4.770564e-03 1.473539e-02 0.000000e+00
-5.070550e-03 9.392083e-03 0.000000e+00
-1.169605e-02 2.066334e-03 0.000000e+00
-1.242462e-02 -6.678385e-03 0.000000e+00
-7.345212e-03 -1.575835e-02 0.000000e+00
8.415179e-04 -2.367280e-02 0.000000e+00
8.099823e-03 -2.864146e-02 0.000000e+00
1.084578e-02 -2.862015e-02 0.000000e+00
6.138579e-03 3.912826e-03 0.000000e+00
1.436460e-02 5.588838e-03 0.000000e+00
1.324688e-02 6.248027e-03 0.000000e+00
6.607563e-03 5.779005e-03 0.000000e+00
-9.848942e-04 3.711221e-03 0.000000e+00
-5.491922e-03 -2.843197e-04 0.000000e+00
-4.856049e-03 -6.031945e-03 0.000000e+00
2.224434e-04 -1.273019e-02 0.000000e+00
6.598138e-03 -1.905358e-02 0.000000e+00
9.912289e-03 -2.335196e-02 0.000000e+00
6.116462e-03 -2.375415e-02 0.000000e+00
4.160797e-03 -1.145686e-02 0.000000e+00
1.204141e-02 -1.041780e-02 0.000000e+00
1.098072e-02 -7.771780e-03 0.000000e+00
5.200678e-03 -4.647076e-03 0.000000e+00
-7.155936e-04 -2.182051e-03 0.000000e+00
-3.147795e-03 -1.250682e-03 0.000000e+00
-7.155936e-04 -2.182051e-03 0.000000e+00
5.200678e-03 -4.647076e-03 0.000000e+00
1.098072e-02 -7.771780e-03 0.000000e+00
1.204141e-02 -1.041780e-02 0.000000e+00
4.160797e-03 -1.145686e-02 0.000000e+00
6.116462e-03 -2.375415e-02 0.000000e+00
9.912289e-03 -2.335196e-02 0.000000e+00
6.598138e-03 -1.905358e-02 0.000000e+00
2.224434e-04 -1.273019e-02 0.000000e+00
-4.856049e-03 -6.031945e-03 0.000000e+00
-5.491922e-03 -2.843197e-04 0.000000e+00
-9.848942e-04 3.711221e-03 0.000000e+00
6.607563e-03 5.779005e-03 0.000000e+00
1.324688e-02 6.248027e-03 0.000000e+00
1.436460e-02 5.588838e-03 0.000000e+00
6.138579e-03 3.912826e-03 0.000000e+00
1.084578e-02 -2.862015e-02 0.000000e+00
8.099823e-03 -2.864146e-02 0.000000e+00
8.415179e-04 -2.367280e-02 0.000000e+00
-7.345212e-03 -1.575835e-02 0.000000e+00
-1.242462e-02 -6.678385e-03 0.000000e+00
-1.169605e-02 2.066334e-03 0.000000e+00
-5.070550e-03 9.392083e-03 0.000000e+00
4.770564e-03 1.473539e-02 0.000000e+00
1.345210e-02 1.796061e-02 0.000000e+00
1.667308e-02 1.896054e-02 0.000000e+00