TITLE="Hexahedron mesh"
VARIABLES= "x" "y" "z" "u"
ZONE T="none",N=343,E=216,ET=BRICK, F=FEPOINT
                   0	                   0	                   0	                   1
  0.0833333333333333	                   0	                   0	   0.866113332716787
   0.166666666666667	                   0	                   0	   0.499918665599073
                0.25	                   0	                   0	6.12323399573677e-17
   0.333333333333333	                   0	                   0	  -0.499918665599072
   0.416666666666667	                   0	                   0	  -0.866113332716786
                 0.5	                   0	                   0	                  -1
                   0	  0.0833333333333333	                   0	   0.708260772362588
  0.0833333333333333	  0.0833333333333333	                   0	     0.2595074143436
   0.166666666666667	  0.0833333333333333	                   0	  -0.258964384189924
                0.25	  0.0833333333333333	                   0	  -0.707869931312925
   0.333333333333333	  0.0833333333333333	                   0	  -0.967109944621271
   0.416666666666667	  0.0833333333333333	                   0	  -0.967360781623454
                 0.5	  0.0833333333333333	                   0	  -0.708260772362589
                   0	   0.166666666666667	                   0	-0.000991547666530451
  0.0833333333333333	   0.166666666666667	                   0	  -0.500442579708909
   0.166666666666667	   0.166666666666667	                   0	  -0.865825837411141
                0.25	   0.166666666666667	                   0	  -0.999190955004077
   0.333333333333333	   0.166666666666667	                   0	  -0.864834451038482
   0.416666666666667	   0.166666666666667	                   0	  -0.498724994400897
                 0.5	   0.166666666666667	                   0	0.000991547666530108
                   0	                0.25	                   0	  -0.707106781186547
  0.0833333333333333	                0.25	                   0	  -0.965979728345649
   0.166666666666667	                0.25	                   0	  -0.965872131376354
                0.25	                0.25	                   0	  -0.707106781186548
   0.333333333333333	                0.25	                   0	  -0.258880374402686
   0.416666666666667	                0.25	                   0	   0.258889493334591
                 0.5	                0.25	                   0	   0.707106781186547
                   0	   0.333333333333333	                   0	  -0.999190955004077
  0.0833333333333333	   0.333333333333333	                   0	  -0.865908370291294
   0.166666666666667	   0.333333333333333	                   0	  -0.500372919725279
                0.25	   0.333333333333333	                   0	-0.000991547666530895
   0.333333333333333	   0.333333333333333	                   0	   0.498655498083323
   0.416666666666667	   0.333333333333333	                   0	   0.864916845826806
                 0.5	   0.333333333333333	                   0	   0.999190955004077
                   0	   0.416666666666667	                   0	  -0.707869931312925
  0.0833333333333333	   0.416666666666667	                   0	  -0.258973485747488
   0.166666666666667	   0.416666666666667	                   0	   0.259498253313671
                0.25	   0.416666666666667	                   0	   0.708260772362588
   0.333333333333333	   0.416666666666667	                   0	      0.967253036273
   0.416666666666667	   0.416666666666667	                   0	   0.967217684931392
                 0.5	   0.416666666666667	                   0	   0.707869931312925
                   0	                 0.5	                   0	-1.83697019872103e-16
  0.0833333333333333	                 0.5	                   0	   0.499988300087108
   0.166666666666667	                 0.5	                   0	   0.866030802111575
                0.25	                 0.5	                   0	                   1
   0.333333333333333	                 0.5	                   0	   0.866030802111575
   0.416666666666667	                 0.5	                   0	   0.499988300087108
                 0.5	                 0.5	                   0	3.06161699786838e-16
                   0	                   0	  0.0833333333333333	   0.502459557349464
  0.0833333333333333	                   0	  0.0833333333333333	-0.00220106488427159
   0.166666666666667	                   0	  0.0833333333333333	  -0.506411754130605
                0.25	                   0	  0.0833333333333333	  -0.874796443395606
   0.333333333333333	                   0	  0.0833333333333333	   -1.00878957698589
   0.416666666666667	                   0	  0.0833333333333333	  -0.872574908426963
                 0.5	                   0	  0.0833333333333333	  -0.502459557349465
                   0	  0.0833333333333333	  0.0833333333333333	  -0.263369704129943
  0.0833333333333333	  0.0833333333333333	  0.0833333333333333	  -0.715726610227326
   0.166666666666667	  0.0833333333333333	  0.0833333333333333	  -0.976268645844567
                0.25	  0.0833333333333333	  0.0833333333333333	  -0.975260017007905
   0.333333333333333	  0.0833333333333333	  0.0833333333333333	   -0.71294178374884
   0.416666666666667	  0.0833333333333333	  0.0833333333333333	  -0.259510585866088
                 0.5	  0.0833333333333333	  0.0833333333333333	   0.263369704129944
                   0	   0.166666666666667	  0.0833333333333333	  -0.874586906312242
  0.0833333333333333	   0.166666666666667	  0.0833333333333333	    -1.0080783376416
   0.166666666666667	   0.166666666666667	  0.0833333333333333	  -0.871264523210288
                0.25	   0.166666666666667	  0.0833333333333333	  -0.501185642586799
   0.333333333333333	   0.166666666666667	  0.0833333333333333	 0.00318011509778667
   0.416666666666667	   0.166666666666667	  0.0833333333333333	   0.506904422711521
                 0.5	   0.166666666666667	  0.0833333333333333	   0.874586906312242
                   0	                0.25	  0.0833333333333333	  -0.973867057556704
  0.0833333333333333	                0.25	  0.0833333333333333	  -0.711841354714702
   0.166666666666667	                0.25	  0.0833333333333333	  -0.258844052795155
                0.25	                0.25	  0.0833333333333333	   0.263281937009109
   0.333333333333333	                0.25	  0.0833333333333333	   0.714864586974131
   0.416666666666667	                0.25	  0.0833333333333333	   0.975117130972353
                 0.5	                0.25	  0.0833333333333333	   0.973867057556704
                   0	   0.333333333333333	  0.0833333333333333	  -0.502920447331076
  0.0833333333333333	   0.333333333333333	  0.0833333333333333	 0.00119891489263833
   0.166666666666667	   0.333333333333333	  0.0833333333333333	   0.505136946139632
                0.25	   0.333333333333333	  0.0833333333333333	   0.873590481109009
   0.333333333333333	   0.333333333333333	  0.0833333333333333	    1.00797558400411
   0.416666666666667	   0.333333333333333	  0.0833333333333333	   0.872371124351308
                 0.5	   0.333333333333333	  0.0833333333333333	   0.502920447331077
                   0	   0.416666666666667	  0.0833333333333333	   0.263907992310929
  0.0833333333333333	   0.416666666666667	  0.0833333333333333	   0.716120068230661
   0.166666666666667	   0.416666666666667	  0.0833333333333333	   0.976411717420156
                0.25	   0.416666666666667	  0.0833333333333333	   0.975114492468535
   0.333333333333333	   0.416666666666667	  0.0833333333333333	   0.712546654706137
   0.416666666666667	   0.416666666666667	  0.0833333333333333	   0.258971606728631
                 0.5	   0.416666666666667	  0.0833333333333333	  -0.263907992310927
                   0	                 0.5	  0.0833333333333333	   0.874796443395606
  0.0833333333333333	                 0.5	  0.0833333333333333	    1.00889676297984
   0.166666666666667	                 0.5	  0.0833333333333333	    0.87247252413313
                0.25	                 0.5	  0.0833333333333333	   0.502459557349465
   0.333333333333333	                 0.5	  0.0833333333333333	-0.00218161717316247
   0.416666666666667	                 0.5	  0.0833333333333333	   -0.50644896309648
                 0.5	                 0.5	  0.0833333333333333	  -0.874796443395606
                   0	                   0	   0.166666666666667	  -0.501168728770241
  0.0833333333333333	                   0	   0.166666666666667	  -0.862858072357654
   0.166666666666667	                   0	   0.166666666666667	  -0.993250212025907
                0.25	                   0	   0.166666666666667	  -0.857598376510653
   0.333333333333333	                   0	   0.166666666666667	  -0.492163007772303
   0.416666666666667	                   0	   0.166666666666667	 0.00527976349960299
                 0.5	                   0	   0.166666666666667	   0.501168728770241
                   0	  0.0833333333333333	   0.166666666666667	  -0.962026254797459
  0.0833333333333333	  0.0833333333333333	   0.166666666666667	  -0.959541317282589
   0.166666666666667	  0.0833333333333333	   0.166666666666667	  -0.699729782361493
                0.25	  0.0833333333333333	   0.166666666666667	  -0.252641014913561
   0.333333333333333	  0.0833333333333333	   0.166666666666667	   0.262139980777745
   0.416666666666667	  0.0833333333333333	   0.166666666666667	   0.706906214124763
                 0.5	  0.0833333333333333	   0.166666666666667	   0.962026254797459
                   0	   0.166666666666667	   0.166666666666667	  -0.856407608152076
  0.0833333333333333	   0.166666666666667	   0.166666666666667	  -0.490945111302571
   0.166666666666667	   0.166666666666667	   0.166666666666667	 0.00627868867740106
                0.25	   0.166666666666667	   0.166666666666667	   0.501613610387166
   0.333333333333333	   0.166666666666667	   0.166666666666667	   0.862546986029958
   0.416666666666667	   0.166666666666667	   0.166666666666667	   0.992546984018641
                 0.5	   0.166666666666667	   0.166666666666667	   0.856407608152076
                   0	                0.25	   0.166666666666667	  -0.252033820933178
  0.0833333333333333	                0.25	   0.166666666666667	     0.2620956232934
   0.166666666666667	                0.25	   0.166666666666667	   0.706080297034703
                0.25	                0.25	   0.166666666666667	   0.960793434197336
   0.333333333333333	                0.25	   0.166666666666667	   0.958073119928203
   0.416666666666667	                0.25	   0.166666666666667	   0.698675328504962
                 0.5	                0.25	   0.166666666666667	   0.252033820933178
                   0	   0.333333333333333	   0.166666666666667	   0.499912911049066
  0.0833333333333333	   0.333333333333333	   0.166666666666667	   0.861671942693893
   0.166666666666667	   0.333333333333333	   0.166666666666667	   0.992451881250855
                0.25	   0.333333333333333	   0.166666666666667	   0.857401473519176
   0.333333333333333	   0.333333333333333	   0.166666666666667	   0.492620290436062
   0.416666666666667	   0.333333333333333	   0.166666666666667	-0.00429053221982266
                 0.5	   0.333333333333333	   0.166666666666667	  -0.499912911049065
                   0	   0.416666666666667	   0.166666666666667	   0.962165562135113
  0.0833333333333333	   0.416666666666667	   0.166666666666667	   0.959396448457617
   0.166666666666667	   0.416666666666667	   0.166666666666667	   0.699339508683199
                0.25	   0.416666666666667	   0.166666666666667	   0.252109952951886
   0.333333333333333	   0.416666666666667	   0.166666666666667	  -0.262669539132734
   0.416666666666667	   0.416666666666667	   0.166666666666667	  -0.707292394834709
                 0.5	   0.416666666666667	   0.166666666666667	  -0.962165562135112
                   0	                 0.5	   0.166666666666667	   0.857598376510653
  0.0833333333333333	                 0.5	   0.166666666666667	   0.492198887257499
   0.166666666666667	                 0.5	   0.166666666666667	-0.00529812016499218
                0.25	                 0.5	   0.166666666666667	  -0.501168728770241
   0.333333333333333	                 0.5	   0.166666666666667	  -0.862756992175266
   0.416666666666667	                 0.5	   0.166666666666667	  -0.993355888766797
                 0.5	                 0.5	   0.166666666666667	  -0.857598376510654
                   0	                   0	                0.25	                  -1
  0.0833333333333333	                   0	                0.25	  -0.866113332716787
   0.166666666666667	                   0	                0.25	  -0.499918665599073
                0.25	                   0	                0.25	-1.83697019872103e-16
   0.333333333333333	                   0	                0.25	   0.499918665599072
   0.416666666666667	                   0	                0.25	   0.866113332716786
                 0.5	                   0	                0.25	                   1
                   0	  0.0833333333333333	                0.25	  -0.708260772362589
  0.0833333333333333	  0.0833333333333333	                0.25	    -0.2595074143436
   0.166666666666667	  0.0833333333333333	                0.25	   0.258964384189924
                0.25	  0.0833333333333333	                0.25	   0.707869931312925
   0.333333333333333	  0.0833333333333333	                0.25	   0.967109944621271
   0.416666666666667	  0.0833333333333333	                0.25	   0.967360781623454
                 0.5	  0.0833333333333333	                0.25	   0.708260772362588
                   0	   0.166666666666667	                0.25	0.000991547666530108
  0.0833333333333333	   0.166666666666667	                0.25	   0.500442579708909
   0.166666666666667	   0.166666666666667	                0.25	   0.865825837411141
                0.25	   0.166666666666667	                0.25	   0.999190955004077
   0.333333333333333	   0.166666666666667	                0.25	   0.864834451038481
   0.416666666666667	   0.166666666666667	                0.25	   0.498724994400897
                 0.5	   0.166666666666667	                0.25	-0.000991547666530476
                   0	                0.25	                0.25	   0.707106781186547
  0.0833333333333333	                0.25	                0.25	   0.965979728345649
   0.166666666666667	                0.25	                0.25	   0.965872131376354
                0.25	                0.25	                0.25	   0.707106781186548
   0.333333333333333	                0.25	                0.25	   0.258880374402686
   0.416666666666667	                0.25	                0.25	  -0.258889493334591
                 0.5	                0.25	                0.25	  -0.707106781186547
                   0	   0.333333333333333	                0.25	   0.999190955004077
  0.0833333333333333	   0.333333333333333	                0.25	   0.865908370291294
   0.166666666666667	   0.333333333333333	                0.25	    0.50037291972528
                0.25	   0.333333333333333	                0.25	 0.00099154766653245
   0.333333333333333	   0.333333333333333	                0.25	  -0.498655498083323
   0.416666666666667	   0.333333333333333	                0.25	  -0.864916845826806
                 0.5	   0.333333333333333	                0.25	  -0.999190955004077
                   0	   0.416666666666667	                0.25	   0.707869931312925
  0.0833333333333333	   0.416666666666667	                0.25	   0.258973485747487
   0.166666666666667	   0.416666666666667	                0.25	  -0.259498253313671
                0.25	   0.416666666666667	                0.25	  -0.708260772362587
   0.333333333333333	   0.416666666666667	                0.25	     -0.967253036273
   0.416666666666667	   0.416666666666667	                0.25	  -0.967217684931393
                 0.5	   0.416666666666667	                0.25	  -0.707869931312926
                   0	                 0.5	                0.25	3.06161699786838e-16
  0.0833333333333333	                 0.5	                0.25	  -0.499988300087108
   0.166666666666667	                 0.5	                0.25	  -0.866030802111574
                0.25	                 0.5	                0.25	                  -1
   0.333333333333333	                 0.5	                0.25	  -0.866030802111575
   0.416666666666667	                 0.5	                0.25	  -0.499988300087109
                 0.5	                 0.5	                0.25	-4.28626379701574e-16
                   0	                   0	   0.333333333333333	  -0.501168728770241
  0.0833333333333333	                   0	   0.333333333333333	-0.00527976349960439
   0.166666666666667	                   0	   0.333333333333333	   0.492163007772302
                0.25	                   0	   0.333333333333333	   0.857598376510653
   0.333333333333333	                   0	   0.333333333333333	   0.993250212025908
   0.416666666666667	                   0	   0.333333333333333	   0.862858072357655
                 0.5	                   0	   0.333333333333333	   0.501168728770241
                   0	  0.0833333333333333	   0.333333333333333	   0.252109952951883
  0.0833333333333333	  0.0833333333333333	   0.333333333333333	   0.699427315376521
   0.166666666666667	  0.0833333333333333	   0.333333333333333	   0.959299484803957
                0.25	  0.0833333333333333	   0.333333333333333	   0.962165562135113
   0.333333333333333	  0.0833333333333333	   0.333333333333333	   0.707230542276056
   0.416666666666667	  0.0833333333333333	   0.333333333333333	   0.262715732252065
                 0.5	  0.0833333333333333	   0.333333333333333	  -0.252109952951884
                   0	   0.166666666666667	   0.333333333333333	   0.857401473519175
  0.0833333333333333	   0.166666666666667	   0.333333333333333	   0.992557454292999
   0.166666666666667	   0.166666666666667	   0.333333333333333	    0.86157097986614
                0.25	   0.166666666666667	   0.333333333333333	   0.499912911049066
   0.333333333333333	   0.166666666666667	   0.333333333333333	 0.00430897881737211
   0.416666666666667	   0.166666666666667	   0.333333333333333	  -0.492656241118954
                 0.5	   0.166666666666667	   0.333333333333333	  -0.857401473519175
                   0	                0.25	   0.333333333333333	   0.960793434197336
  0.0833333333333333	                0.25	   0.333333333333333	   0.706142041652224
   0.166666666666667	                0.25	   0.333333333333333	   0.262049519438278
                0.25	                0.25	   0.333333333333333	  -0.252033820933178
   0.333333333333333	                0.25	   0.333333333333333	  -0.698587623642287
   0.416666666666667	                0.25	   0.333333333333333	  -0.958169965037899
                 0.5	                0.25	   0.333333333333333	  -0.960793434197335
                   0	   0.333333333333333	   0.333333333333333	   0.501613610387166
  0.0833333333333333	   0.333333333333333	   0.333333333333333	 0.00626045164690667
   0.166666666666667	   0.333333333333333	   0.333333333333333	  -0.490909361071311
                0.25	   0.333333333333333	   0.333333333333333	  -0.856407608152074
   0.333333333333333	   0.333333333333333	   0.333333333333333	  -0.992441374573482
   0.416666666666667	   0.333333333333333	   0.333333333333333	  -0.862648020010151
                 0.5	   0.333333333333333	   0.333333333333333	  -0.501613610387166
                   0	   0.416666666666667	   0.333333333333333	   -0.25264101491356
  0.0833333333333333	   0.416666666666667	   0.333333333333333	  -0.699817623183084
   0.166666666666667	   0.416666666666667	   0.333333333333333	   -0.95944432814582
                0.25	   0.416666666666667	   0.333333333333333	  -0.962026254797459
   0.333333333333333	   0.416666666666667	   0.333333333333333	  -0.706844410043456
   0.416666666666667	   0.416666666666667	   0.333333333333333	  -0.262186120367614
                 0.5	   0.416666666666667	   0.333333333333333	   0.252641014913559
                   0	                 0.5	   0.333333333333333	  -0.857598376510653
  0.0833333333333333	                 0.5	   0.333333333333333	  -0.993355888766797
   0.166666666666667	                 0.5	   0.333333333333333	  -0.862756992175267
                0.25	                 0.5	   0.333333333333333	  -0.501168728770242
   0.333333333333333	                 0.5	   0.333333333333333	-0.00529812016499407
   0.416666666666667	                 0.5	   0.333333333333333	   0.492198887257497
                 0.5	                 0.5	   0.333333333333333	   0.857598376510653
                   0	                   0	   0.416666666666667	   0.502459557349464
  0.0833333333333333	                   0	   0.416666666666667	   0.872574908426963
   0.166666666666667	                   0	   0.416666666666667	    1.00878957698589
                0.25	                   0	   0.416666666666667	   0.874796443395606
   0.333333333333333	                   0	   0.416666666666667	   0.506411754130605
   0.416666666666667	                   0	   0.416666666666667	 0.00220106488427257
                 0.5	                   0	   0.416666666666667	  -0.502459557349464
                   0	  0.0833333333333333	   0.416666666666667	   0.975114492468534
  0.0833333333333333	  0.0833333333333333	   0.416666666666667	   0.976510571307304
   0.166666666666667	  0.0833333333333333	   0.416666666666667	   0.716030386145876
                0.25	  0.0833333333333333	   0.416666666666667	    0.26390799231093
   0.333333333333333	  0.0833333333333333	   0.416666666666667	  -0.258925485616496
   0.416666666666667	  0.0833333333333333	   0.416666666666667	  -0.712608754397416
                 0.5	  0.0833333333333333	   0.416666666666667	  -0.975114492468534
                   0	   0.166666666666667	   0.416666666666667	   0.873590481109011
  0.0833333333333333	   0.166666666666667	   0.416666666666667	   0.505174023482874
   0.166666666666667	   0.166666666666667	   0.416666666666667	  0.0011795891956255
                0.25	   0.166666666666667	   0.416666666666667	  -0.502920447331075
   0.333333333333333	   0.166666666666667	   0.416666666666667	   -0.87226878599651
   0.416666666666667	   0.166666666666667	   0.416666666666667	    -1.0080827025631
                 0.5	   0.166666666666667	   0.416666666666667	  -0.873590481109011
                   0	                0.25	   0.416666666666667	   0.263281937009111
  0.0833333333333333	                0.25	   0.416666666666667	  -0.258890138711518
   0.166666666666667	                0.25	   0.416666666666667	  -0.711779314379938
                0.25	                0.25	   0.416666666666667	  -0.973867057556704
   0.333333333333333	                0.25	   0.416666666666667	  -0.975018423631805
   0.416666666666667	                0.25	   0.416666666666667	  -0.714954130525702
                 0.5	                0.25	   0.416666666666667	  -0.263281937009111
                   0	   0.333333333333333	   0.416666666666667	  -0.501185642586798
  0.0833333333333333	   0.333333333333333	   0.416666666666667	  -0.871366787776156
   0.166666666666667	   0.333333333333333	   0.416666666666667	   -1.00797125764928
                0.25	   0.333333333333333	   0.416666666666667	  -0.874586906312243
   0.333333333333333	   0.333333333333333	   0.416666666666667	  -0.506867142330466
   0.416666666666667	   0.333333333333333	   0.416666666666667	-0.00319965335484486
                 0.5	   0.333333333333333	   0.416666666666667	   0.501185642586798
                   0	   0.416666666666667	   0.416666666666667	  -0.975260017007905
  0.0833333333333333	   0.416666666666667	   0.416666666666667	  -0.976367474258521
   0.166666666666667	   0.416666666666667	   0.416666666666667	  -0.715636962434264
                0.25	   0.416666666666667	   0.416666666666667	  -0.263369704129945
   0.333333333333333	   0.416666666666667	   0.416666666666667	   0.259464410195177
   0.416666666666667	   0.416666666666667	   0.416666666666667	   0.713003932933772
                 0.5	   0.416666666666667	   0.416666666666667	   0.975260017007904
                   0	                 0.5	   0.416666666666667	  -0.874796443395606
  0.0833333333333333	                 0.5	   0.416666666666667	  -0.506448963096482
   0.166666666666667	                 0.5	   0.416666666666667	-0.00218161717316353
                0.25	                 0.5	   0.416666666666667	   0.502459557349463
   0.333333333333333	                 0.5	   0.416666666666667	   0.872472524133129
   0.416666666666667	                 0.5	   0.416666666666667	    1.00889676297984
                 0.5	                 0.5	   0.416666666666667	   0.874796443395606
                   0	                   0	                 0.5	                   1
  0.0833333333333333	                   0	                 0.5	   0.866113332716787
   0.166666666666667	                   0	                 0.5	   0.499918665599073
                0.25	                   0	                 0.5	3.06161699786838e-16
   0.333333333333333	                   0	                 0.5	  -0.499918665599072
   0.416666666666667	                   0	                 0.5	  -0.866113332716786
                 0.5	                   0	                 0.5	                  -1
                   0	  0.0833333333333333	                 0.5	   0.708260772362588
  0.0833333333333333	  0.0833333333333333	                 0.5	     0.2595074143436
   0.166666666666667	  0.0833333333333333	                 0.5	  -0.258964384189924
                0.25	  0.0833333333333333	                 0.5	  -0.707869931312925
   0.333333333333333	  0.0833333333333333	                 0.5	  -0.967109944621271
   0.416666666666667	  0.0833333333333333	                 0.5	  -0.967360781623454
                 0.5	  0.0833333333333333	                 0.5	  -0.708260772362587
                   0	   0.166666666666667	                 0.5	-0.000991547666529754
  0.0833333333333333	   0.166666666666667	                 0.5	  -0.500442579708908
   0.166666666666667	   0.166666666666667	                 0.5	  -0.865825837411141
                0.25	   0.166666666666667	                 0.5	  -0.999190955004077
   0.333333333333333	   0.166666666666667	                 0.5	  -0.864834451038481
   0.416666666666667	   0.166666666666667	                 0.5	  -0.498724994400897
                 0.5	   0.166666666666667	                 0.5	0.000991547666531041
                   0	                0.25	                 0.5	  -0.707106781186547
  0.0833333333333333	                0.25	                 0.5	  -0.965979728345649
   0.166666666666667	                0.25	                 0.5	  -0.965872131376354
                0.25	                0.25	                 0.5	  -0.707106781186547
   0.333333333333333	                0.25	                 0.5	  -0.258880374402685
   0.416666666666667	                0.25	                 0.5	   0.258889493334591
                 0.5	                0.25	                 0.5	   0.707106781186547
                   0	   0.333333333333333	                 0.5	  -0.999190955004077
  0.0833333333333333	   0.333333333333333	                 0.5	  -0.865908370291295
   0.166666666666667	   0.333333333333333	                 0.5	   -0.50037291972528
                0.25	   0.333333333333333	                 0.5	-0.000991547666532283
   0.333333333333333	   0.333333333333333	                 0.5	   0.498655498083323
   0.416666666666667	   0.333333333333333	                 0.5	   0.864916845826806
                 0.5	   0.333333333333333	                 0.5	   0.999190955004077
                   0	   0.416666666666667	                 0.5	  -0.707869931312926
  0.0833333333333333	   0.416666666666667	                 0.5	  -0.258973485747487
   0.166666666666667	   0.416666666666667	                 0.5	    0.25949825331367
                0.25	   0.416666666666667	                 0.5	   0.708260772362586
   0.333333333333333	   0.416666666666667	                 0.5	   0.967253036272999
   0.416666666666667	   0.416666666666667	                 0.5	   0.967217684931392
                 0.5	   0.416666666666667	                 0.5	   0.707869931312926
                   0	                 0.5	                 0.5	-4.28626379701574e-16
  0.0833333333333333	                 0.5	                 0.5	   0.499988300087108
   0.166666666666667	                 0.5	                 0.5	   0.866030802111574
                0.25	                 0.5	                 0.5	                   1
   0.333333333333333	                 0.5	                 0.5	   0.866030802111575
   0.416666666666667	                 0.5	                 0.5	   0.499988300087108
                 0.5	                 0.5	                 0.5	5.51091059616309e-16
         1	         2	         9	         8	        50	        51	        58	        57
         2	         3	        10	         9	        51	        52	        59	        58
         3	         4	        11	        10	        52	        53	        60	        59
         4	         5	        12	        11	        53	        54	        61	        60
         5	         6	        13	        12	        54	        55	        62	        61
         6	         7	        14	        13	        55	        56	        63	        62
         8	         9	        16	        15	        57	        58	        65	        64
         9	        10	        17	        16	        58	        59	        66	        65
        10	        11	        18	        17	        59	        60	        67	        66
        11	        12	        19	        18	        60	        61	        68	        67
        12	        13	        20	        19	        61	        62	        69	        68
        13	        14	        21	        20	        62	        63	        70	        69